# LAMMPS data file written by OVITO
840 atoms
2 atom types
0 27.09189987 xlo xhi
-63.50490189 63.50490189 ylo yhi
0 2.855730057 zlo zhi

Atoms

2 1 1.437520027 -62.42079926 1.317070007
5 1 0.5118970275 -60.65639877 2.801660061
6 1 2.319649935 -59.74539948 1.38586998
7 1 3.247459888 -61.5461998 2.832380056
13 1 0.5155240297 -56.13439941 1.382670045
14 1 1.418519974 -57.94010162 2.81092
15 1 3.225039959 -57.03820038 1.382439971
16 1 4.128960133 -58.84460068 2.809299946
8 1 5.027210236 -60.65639877 1.373790026
9 1 5.952819824 -62.42079926 2.744940042
10 1 7.762770176 -61.5461998 1.404520035
17 1 5.933829784 -57.94010162 1.383059978
18 1 6.834959984 -59.74539948 2.813740015
19 1 8.644269943 -58.84460068 1.38143003
23 1 5.030829906 -56.13439941 2.810539961
24 1 7.740340233 -57.03820038 2.810309887
26 1 10.44909954 -57.94010162 2.81092
27 1 12.25570011 -57.03820038 1.382439971
25 1 9.546139717 -56.13439941 1.382670045
1 1 13.15960026 -58.84460068 2.809299946
12 1 10.46809959 -62.42079926 1.317070007
20 1 9.542510033 -60.65639877 2.801660061
21 1 11.35029984 -59.74539948 1.38586998
22 1 12.27810001 -61.5461998 2.832380056
29 1 1.41869998 -53.42549896 1.38259995
30 1 2.321860075 -55.2317009 2.810450077
31 1 4.127840042 -54.32849884 1.382609963
34 1 0.515550971 -51.61940002 2.810460091
35 1 2.321609974 -50.71630096 1.382590055
36 1 3.224750042 -52.5223999 2.810470104
43 1 1.418449998 -48.91019821 2.810450077
44 1 3.224499941 -48.00709915 1.382580042
45 1 4.127699852 -49.8132019 2.810450077
32 1 6.837170124 -55.2317009 1.382580042
37 1 5.030859947 -51.61940002 1.382590055
38 1 5.934010029 -53.42549896 2.810460091
39 1 7.740059853 -52.5223999 1.38259995
40 1 8.64315033 -54.32849884 2.810480118
46 1 5.933750153 -48.91019821 1.382580042
47 1 6.836919785 -50.71630096 2.810460091
48 1 8.642999649 -49.8132019 1.382590055
52 1 7.73980999 -48.00709915 2.810440063
55 1 13.1583004 -49.8132019 2.810450077
54 1 12.25510025 -48.00709915 1.382580042
41 1 10.44929981 -53.42549896 1.38259995
42 1 11.35249996 -55.2317009 2.810450077
49 1 9.546170235 -51.61940002 2.810460091
50 1 11.35219955 -50.71630096 1.382590055
51 1 12.2553997 -52.5223999 2.810470104
53 1 10.44909954 -48.91019821 2.810450077
457 1 13.15849972 -54.32849884 1.382609963
56 1 0.5152410269 -47.10409927 1.382570028
58 1 1.41802001 -44.39490128 1.382560015
59 1 2.321280003 -46.20100021 2.81043005
60 1 4.127309799 -45.29800034 1.382560015
65 1 0.5147219896 -42.58879852 2.810420036
66 1 2.320719957 -41.68579865 1.382550001
67 1 3.224030018 -43.4919014 2.810420036
74 1 1.417369962 -39.87969971 2.810400009
75 1 4.126699924 -40.78269958 2.810410023
61 1 5.030550003 -47.10409927 2.810440063
62 1 6.836589813 -46.20100021 1.382570028
68 1 5.030029774 -42.58879852 1.382550001
69 1 5.933330059 -44.39490128 2.81043005
70 1 7.739339828 -43.4919014 1.382550001
71 1 8.642620087 -45.29800034 2.81043005
76 1 5.93268013 -39.87969971 1.382539988
77 1 6.836030006 -41.68579865 2.810410023
78 1 8.642009735 -40.78269958 1.382539988
83 1 13.1573 -40.78269958 2.810410023
82 1 10.44799995 -39.87969971 2.810400009
63 1 9.545860291 -47.10409927 1.382570028
72 1 10.44859982 -44.39490128 1.382560015
73 1 11.3519001 -46.20100021 2.81043005
79 1 9.545339584 -42.58879852 2.810420036
80 1 11.35130024 -41.68579865 1.382550001
81 1 12.25459957 -43.4919014 2.810420036
483 1 13.15789986 -45.29800034 1.382560015
84 1 0.5139920115 -38.07360077 1.382529974
85 1 3.223340034 -38.97669983 1.382529974
87 1 1.416530013 -35.36449814 1.38251996
88 1 2.31994009 -37.17060089 2.810389996
89 1 4.125899792 -36.26760101 1.38251996
95 1 0.513101995 -33.55849838 2.810389996
96 1 2.31904006 -32.6554985 1.38251996
97 1 3.222470045 -34.46149826 2.810389996
90 1 5.029300213 -38.07360077 2.810400009
91 1 6.835249901 -37.17060089 1.382529974
92 1 7.738639832 -38.97669983 2.810400009
98 1 5.028409958 -33.55849838 1.38251996
99 1 5.931839943 -35.36449814 2.810389996
100 1 7.737780094 -34.46149826 1.38251996
101 1 8.641209602 -36.26760101 2.810389996
105 1 6.834350109 -32.6554985 2.810379982
108 1 12.2531004 -34.46149826 2.810389996
93 1 9.544610023 -38.07360077 1.382529974
94 1 12.25399971 -38.97669983 1.382529974
102 1 10.44709969 -35.36449814 1.38251996
103 1 11.35060024 -37.17060089 2.810389996
104 1 13.15649986 -36.26760101 1.38251996
106 1 9.543720245 -33.55849838 2.810389996
107 1 11.34969997 -32.6554985 1.38251996
110 1 0.5121639967 -29.04330063 1.38251996
111 1 1.415599942 -30.84939957 2.810379982
112 1 3.221539974 -29.94639969 1.38251996
113 1 4.124969959 -31.75239944 2.810379982
117 1 1.414690018 -26.33429909 1.382529974
118 1 2.318109989 -28.14030075 2.810389996
119 1 4.12405014 -27.23730087 1.38251996
127 1 0.5112990141 -24.52820015 2.810400009
128 1 3.220639944 -25.43120003 2.810400009
114 1 5.93091011 -30.84939957 1.38251996
115 1 8.64027977 -31.75239944 1.38251996
120 1 5.027470112 -29.04330063 2.810389996
121 1 6.8334198 -28.14030075 1.38251996
122 1 7.736839771 -29.94639969 2.810389996
129 1 5.026609898 -24.52820015 1.382529974
130 1 5.929999828 -26.33429909 2.810389996
131 1 7.735949993 -25.43120003 1.382529974
132 1 8.639360428 -27.23730087 2.810389996
137 1 12.25129986 -25.43120003 2.810400009
136 1 9.541919708 -24.52820015 2.810400009
123 1 9.542779922 -29.04330063 1.38251996
124 1 10.44620037 -30.84939957 2.810379982
125 1 12.25220013 -29.94639969 1.38251996
126 1 13.15559959 -31.75239944 2.810379982
133 1 10.4453001 -26.33429909 1.382529974
134 1 11.34869957 -28.14030075 2.810389996
135 1 13.15470028 -27.23730087 1.38251996
139 1 2.317260027 -23.62509918 1.382539988
140 1 0.5105990171 -20.01300049 1.382550001
141 1 1.413910031 -21.81909943 2.810410023
142 1 3.219909906 -20.91600037 1.382550001
143 1 4.123239994 -22.7220993 2.810410023
149 1 1.413349986 -17.30380058 1.382570028
150 1 2.316610098 -19.10989952 2.81043005
151 1 4.122630119 -18.20689964 1.382560015
159 1 3.219379902 -16.4008007 2.810440063
144 1 5.9292202 -21.81909943 1.382550001
145 1 6.832570076 -23.62509918 2.810400009
146 1 8.638549805 -22.7220993 1.382539988
152 1 5.025909901 -20.01300049 2.810420036
153 1 6.831920147 -19.10989952 1.382560015
154 1 7.735219955 -20.91600037 2.810420036
160 1 5.928659916 -17.30380058 2.81043005
161 1 7.734690189 -16.4008007 1.382570028
162 1 8.637940407 -18.20689964 2.81043005
166 1 12.25 -16.4008007 2.810440063
165 1 13.15320015 -18.20689964 1.382560015
147 1 11.34790039 -23.62509918 1.382539988
155 1 9.541219711 -20.01300049 1.382550001
156 1 10.44449997 -21.81909943 2.810410023
157 1 12.25049973 -20.91600037 1.382550001
158 1 13.15390015 -22.7220993 2.810410023
163 1 10.44400024 -17.30380058 1.382570028
164 1 11.34720039 -19.10989952 2.81043005
168 1 0.5101209879 -15.49769974 2.810440063
169 1 2.316179991 -14.59469986 1.382580042
171 1 0.5098689795 -10.98250008 1.38259995
172 1 1.413010001 -12.78859997 2.810460091
173 1 3.219069958 -11.88549995 1.382590055
181 1 1.412750006 -8.273130417 1.382580042
182 1 2.315920115 -10.07929993 2.810460091
183 1 4.122079849 -9.176400185 1.382609963
174 1 4.122230053 -13.69159985 2.810450077
170 1 5.025430202 -15.49769974 1.382580042
175 1 5.928309917 -12.78859997 1.382590055
176 1 6.83149004 -14.59469986 2.810450077
177 1 8.637539864 -13.69159985 1.382590055
184 1 5.025179863 -10.98250008 2.810470104
185 1 6.83122015 -10.07929993 1.38259995
186 1 7.734379768 -11.88549995 2.810460091
190 1 5.928060055 -8.273130417 2.810450077
191 1 8.637390137 -9.176400185 2.810480118
194 1 13.15270042 -9.176400185 1.382609963
193 1 11.3465004 -10.07929993 2.810460091
178 1 9.540740013 -15.49769974 2.810440063
179 1 11.34679985 -14.59469986 1.382580042
187 1 9.54049015 -10.98250008 1.38259995
188 1 10.4435997 -12.78859997 2.810460091
189 1 12.24969959 -11.88549995 1.382590055
192 1 10.44340038 -8.273130417 1.382580042
583 1 13.15289974 -13.69159985 2.810450077
196 1 0.5095710158 -6.466700077 2.810309887
197 1 2.316080093 -5.564720154 1.383059978
198 1 3.219079971 -7.370409966 2.810539961
201 1 0.4871329963 -1.958629966 1.404520035
202 1 1.414950013 -3.759439945 2.813740015
203 1 3.222700119 -2.848479986 1.373790026
204 1 4.120950222 -4.660280228 2.809299946
211 1 2.29708004 -1.084059954 2.744940042
232 1 4.238180161 -1.700560006e-06 1.66584003
199 1 5.024879932 -6.466700077 1.382439971
200 1 7.734389782 -7.370409966 1.382670045
205 1 5.930260181 -3.759439945 1.38586998
206 1 6.831389904 -5.564720154 2.81092
207 1 8.636260033 -4.660280228 1.38143003
213 1 5.002439976 -1.958629966 2.832380056
214 1 6.812389851 -1.084059954 1.317080021
215 1 7.73800993 -2.848479986 2.801660061
226 1 8.753490448 -1.700370035e-06 0.2379769981
219 1 13.15159988 -4.660280228 2.809299946
208 1 9.540189743 -6.466700077 2.810309887
209 1 11.34669971 -5.564720154 1.383059978
210 1 12.24969959 -7.370409966 2.810539961
212 1 11.32769966 -1.084059954 2.744940042
216 1 9.517749786 -1.958629966 1.404520035
217 1 10.44559956 -3.759439945 2.813740015
218 1 12.25329971 -2.848479986 1.373790026
220 1 13.26879978 -1.700330017e-06 1.66584003
234 1 3.219059944 7.370409966 0.5211529732
235 1 0.5095480084 6.466690063 0.5213779807
236 1 0.487120986 1.958629966 1.927170038
237 1 2.297070026 1.084059954 0.586748004
238 1 3.222690105 2.848479986 1.957900047
242 1 4.120930195 4.660280228 0.5223870277
243 1 2.316060066 5.564720154 1.948629975
244 1 1.41494 3.759439945 0.5179489851
221 1 7.737989902 2.848479986 0.5300289989
231 1 8.636240005 4.660280228 1.95025003
233 1 6.812379837 1.084059954 2.014610052
239 1 7.734370232 7.370409966 1.949020028
240 1 6.831369877 5.564720154 0.5207669735
241 1 5.024859905 6.466690063 1.949239969
245 1 5.002429962 1.958629966 0.4993059933
246 1 5.930240154 3.759439945 1.94580996
230 1 10.44559956 3.759439945 0.5179489851
229 1 12.25329971 2.848479986 1.957900047
228 1 11.32769966 1.084059954 0.586748004
222 1 12.24969959 7.370409966 0.5211529732
223 1 9.540169716 6.466690063 0.5213779807
224 1 13.15149975 4.660280228 0.5223870277
225 1 11.34669971 5.564720154 1.948629975
227 1 9.51774025 1.958629966 1.927170038
258 1 1.412719965 8.273130417 1.949100018
259 1 0.5100799799 15.49769974 0.5212439895
260 1 4.122059822 9.176400185 1.94907999
265 1 4.122200012 13.69159985 0.5212360024
266 1 2.316139936 14.59469986 1.949110031
267 1 1.412969947 12.78859997 0.5212309957
268 1 0.5098360181 10.98250008 1.949090004
269 1 2.31588006 10.07929993 0.5212240219
270 1 3.219029903 11.88549995 1.949090004
253 1 8.6375103 13.69159985 1.949100018
257 1 8.637359619 9.176400185 0.5212100148
261 1 5.928030014 8.273130417 0.521238029
262 1 6.831190109 10.07929993 1.949090004
263 1 6.831449986 14.59469986 0.521239996
264 1 5.025390148 15.49769974 1.949110031
271 1 5.025149822 10.98250008 0.5212230086
272 1 7.734340191 11.88549995 0.5212280154
273 1 5.928279877 12.78859997 1.949100018
247 1 9.540699959 15.49769974 0.5212439895
248 1 13.15279961 13.69159985 0.5212360024
249 1 10.44330025 8.273130417 1.949100018
250 1 13.15270042 9.176400185 1.94907999
251 1 11.34679985 14.59469986 1.949110031
252 1 10.4435997 12.78859997 0.5212309957
254 1 12.24960041 11.88549995 1.949090004
255 1 11.3465004 10.07929993 0.5212240219
256 1 9.540450096 10.98250008 1.949090004
286 1 1.413300037 17.30380058 1.949120045
288 1 4.123189926 22.7220993 0.521281004
289 1 2.317209959 23.62520027 1.949149966
290 1 1.413859963 21.81909943 0.5212770104
291 1 3.219340086 16.4008007 0.5212489963
292 1 4.122580051 18.20689964 1.949120045
298 1 3.219860077 20.91600037 1.949139953
299 1 2.31656003 19.10989952 0.5212630033
300 1 0.5105509758 20.01300049 1.949130058
277 1 8.638500214 22.7220993 1.949149966
284 1 8.637889862 18.20689964 0.5212579966
285 1 7.734650135 16.4008007 1.949110031
287 1 6.832520008 23.62520027 0.5212849975
293 1 5.928609848 17.30380058 0.521254003
294 1 6.831870079 19.10989952 1.949130058
295 1 7.735169888 20.91600037 0.5212720037
296 1 5.929170132 21.81909943 1.949139953
297 1 5.025859833 20.01300049 0.5212680101
274 1 13.15380001 22.7220993 0.521281004
275 1 11.34780025 23.62520027 1.949149966
276 1 10.44449997 21.81909943 0.5212770104
278 1 10.44390011 17.30380058 1.949120045
279 1 12.25 16.4008007 0.5212489963
280 1 13.15320015 18.20689964 1.949120045
281 1 12.25049973 20.91600037 1.949139953
282 1 11.34720039 19.10989952 0.5212630033
283 1 9.54117012 20.01300049 1.949130058
314 1 1.41553998 30.84939957 0.5213040113
316 1 0.5112469792 24.52820015 0.521288991
317 1 1.41463995 26.33429909 1.94915998
318 1 3.220590115 25.43120003 0.5212919712
322 1 3.221479893 29.94639969 1.949169993
323 1 2.318049908 28.14030075 0.5213000178
324 1 0.5121089816 29.04330063 1.949169993
325 1 4.123990059 27.23730087 1.94915998
311 1 8.639300346 27.23730087 0.5212979913
312 1 5.02655983 24.52820015 1.949149966
315 1 7.735899925 25.43120003 1.94915998
319 1 7.73679018 29.94639969 0.5213029981
320 1 5.930850029 30.84939957 1.949169993
321 1 5.027420044 29.04330063 0.5213019848
326 1 5.929950237 26.33429909 0.521295011
327 1 6.833360195 28.14030075 1.949169993
310 1 13.15460014 27.23730087 1.94915998
309 1 12.25119972 25.43120003 0.5212919712
308 1 10.4453001 26.33429909 1.94915998
302 1 10.44620037 30.84939957 0.5213040113
304 1 12.25209999 29.94639969 1.949169993
305 1 11.34869957 28.14030075 0.5213000178
306 1 9.542730331 29.04330063 1.949169993
307 1 9.541859627 24.52820015 0.521288991
337 1 2.318979979 32.6554985 1.949169993
342 1 3.223279953 38.97669983 1.949149966
343 1 2.319890022 37.17060089 0.521295011
344 1 0.513939023 38.07360077 1.94915998
346 1 0.5130469799 33.55849838 0.5213029981
347 1 1.416479945 35.36449814 1.949169993
350 1 4.125840187 36.26760101 1.94915998
351 1 3.222419977 34.46149826 0.5213019848
313 1 4.124919891 31.75239944 0.5213040113
332 1 8.641150475 36.26760101 0.5212979913
338 1 5.02835989 33.55849838 1.949169993
339 1 6.834290028 32.6554985 0.5213040113
340 1 7.738589764 38.97669983 0.521288991
341 1 5.029250145 38.07360077 0.5212919712
345 1 7.737730026 34.46149826 1.949169993
348 1 6.835199833 37.17060089 1.94915998
349 1 5.931789875 35.36449814 0.5213000178
303 1 8.640230179 31.75239944 1.949169993
328 1 12.25389957 38.97669983 1.949149966
329 1 11.34959984 32.6554985 1.949169993
330 1 11.35050011 37.17060089 0.521295011
331 1 9.544560432 38.07360077 1.94915998
333 1 13.15649986 36.26760101 1.94915998
334 1 12.25300026 34.46149826 0.5213019848
335 1 10.44709969 35.36449814 1.949169993
336 1 9.543660164 33.55849838 0.5213029981
301 1 13.15550041 31.75239944 0.5213040113
364 1 1.417320013 39.87969971 0.5212849975
366 1 2.321229935 46.20100021 0.521254003
367 1 0.5151979923 47.10409927 1.949110031
368 1 2.320669889 41.68579865 1.949139953
369 1 4.126649857 40.78269958 0.521281004
374 1 4.127260208 45.29800034 1.949120045
375 1 3.22397995 43.4919014 0.5212680101
376 1 1.417969942 44.39490128 1.949130058
377 1 0.5146729946 42.58879852 0.5212720037
354 1 8.642569542 45.29800034 0.5212579966
357 1 8.641960144 40.78269958 1.949149966
363 1 5.932630062 39.87969971 1.949149966
365 1 5.030509949 47.10409927 0.5212489963
370 1 5.029980183 42.58879852 1.949139953
371 1 6.835979939 41.68579865 0.5212770104
372 1 6.836540222 46.20100021 1.949120045
373 1 5.933279991 44.39490128 0.5212630033
378 1 7.739290237 43.4919014 1.949130058
352 1 11.3519001 46.20100021 0.521254003
353 1 9.545820236 47.10409927 1.949110031
355 1 13.15789986 45.29800034 1.949120045
356 1 12.25459957 43.4919014 0.5212680101
358 1 10.44789982 39.87969971 0.5212849975
359 1 11.35130024 41.68579865 1.949139953
360 1 13.1573 40.78269958 0.521281004
361 1 10.44859982 44.39490128 1.949130058
362 1 9.545289993 42.58879852 0.5212720037
390 1 3.224459887 48.00709915 1.949110031
391 1 2.321840048 55.2317009 0.521238029
394 1 1.418409944 48.91019821 0.521239996
395 1 2.321579933 50.71630096 1.949100018
398 1 4.127810001 54.32849884 1.94907999
399 1 3.224709988 52.5223999 0.5212230086
400 1 1.418670058 53.42549896 1.949090004
401 1 0.5155159831 51.61940002 0.5212280154
402 1 4.127659798 49.8132019 0.5212360024
381 1 8.643119812 54.32849884 0.5212100148
387 1 8.642970085 49.8132019 1.949100018
392 1 5.933710098 48.91019821 1.949110031
393 1 7.739769936 48.00709915 0.5212439895
396 1 6.837140083 55.2317009 1.949100018
397 1 5.933979988 53.42549896 0.5212240219
403 1 5.030819893 51.61940002 1.949090004
404 1 6.836890221 50.71630096 0.5212309957
405 1 7.740019798 52.5223999 1.949090004
379 1 11.35249996 55.2317009 0.521238029
380 1 12.25510025 48.00709915 1.949110031
382 1 13.15839958 54.32849884 1.94907999
383 1 12.25529957 52.5223999 0.5212230086
384 1 10.44929981 53.42549896 1.949090004
385 1 9.54613018 51.61940002 0.5212280154
386 1 13.1583004 49.8132019 0.5212360024
388 1 10.44900036 48.91019821 0.521239996
389 1 11.35219955 50.71630096 1.949100018
415 1 0.5154989958 56.13439941 1.949020028
416 1 3.225009918 57.03820038 1.949239969
418 1 3.247450113 61.5461998 0.4993070066
419 1 1.437510014 62.42079926 2.014610052
420 1 0.5118820071 60.65639877 0.5300289989
427 1 4.128940105 58.84460068 0.5223870277
428 1 2.319629908 59.74539948 1.94580996
429 1 1.418499947 57.94010162 0.5207669735
3 1 4.011710167 63.50490189 1.665850043
414 1 8.644249916 58.84460068 1.95025003
417 1 5.952819824 62.42079926 0.5867469907
421 1 5.030809879 56.13439941 0.5211529732
422 1 5.933810234 57.94010162 1.948629975
423 1 7.740320206 57.03820038 0.5213779807
424 1 7.762760162 61.5461998 1.927170038
425 1 6.834939957 59.74539948 0.5179489851
426 1 5.027190208 60.65639877 1.957900047
11 1 8.527020454 63.50490189 0.2379789948
406 1 12.27810001 61.5461998 0.4993070066
407 1 10.46809959 62.42079926 2.014610052
408 1 9.54611969 56.13439941 1.949020028
409 1 12.25559998 57.03820038 1.949239969
410 1 9.542499542 60.65639877 0.5300289989
411 1 13.15960026 58.84460068 0.5223870277
412 1 11.3501997 59.74539948 1.94580996
413 1 10.44909954 57.94010162 0.5207669735
430 1 13.04230022 63.50490189 1.665850043
431 1 14.05780029 -60.65639877 1.373790026
432 1 14.98340034 -62.42079926 2.744940042
433 1 16.79339981 -61.5461998 1.404520035
437 1 14.96440029 -57.94010162 1.383059978
438 1 15.86559963 -59.74539948 2.813740015
439 1 17.67490005 -58.84460068 1.38143003
446 1 14.0614996 -56.13439941 2.810539961
447 1 16.77099991 -57.03820038 2.810309887
435 1 19.49880028 -62.42079926 1.317070007
440 1 18.57309914 -60.65639877 2.801660061
441 1 20.38089943 -59.74539948 1.38586998
442 1 21.30870056 -61.5461998 2.832380056
448 1 18.57679939 -56.13439941 1.382670045
449 1 19.47979927 -57.94010162 2.81092
450 1 21.28630066 -57.03820038 1.382439971
451 1 22.19020081 -58.84460068 2.809299946
4 1 26.70549965 -58.84460068 1.38143003
455 1 25.8015995 -57.03820038 2.810309887
454 1 23.09210014 -56.13439941 2.810539961
443 1 23.08839989 -60.65639877 1.373790026
444 1 24.01409912 -62.42079926 2.744940042
445 1 25.8239994 -61.5461998 1.404520035
452 1 23.99510002 -57.94010162 1.383059978
453 1 24.89620018 -59.74539948 2.813740015
458 1 15.86779976 -55.2317009 1.382580042
459 1 14.0614996 -51.61940002 1.382590055
460 1 14.96459961 -53.42549896 2.810460091
461 1 16.77070045 -52.5223999 1.38259995
467 1 14.96440029 -48.91019821 1.382580042
468 1 15.86750031 -50.71630096 2.810460091
469 1 17.67359924 -49.8132019 1.382590055
476 1 16.77039909 -48.00709915 2.810440063
462 1 17.67379951 -54.32849884 2.810480118
463 1 19.47990036 -53.42549896 1.38259995
464 1 20.38310051 -55.2317009 2.810450077
465 1 22.18910027 -54.32849884 1.382609963
470 1 18.57679939 -51.61940002 2.810460091
471 1 20.38279915 -50.71630096 1.382590055
472 1 21.2859993 -52.5223999 2.810470104
477 1 19.47970009 -48.91019821 2.810450077
478 1 21.28569984 -48.00709915 1.382580042
479 1 22.18889999 -49.8132019 2.810450077
482 1 25.8010006 -48.00709915 2.810440063
466 1 24.89839935 -55.2317009 1.382580042
473 1 23.09210014 -51.61940002 1.382590055
474 1 23.9951992 -53.42549896 2.810460091
475 1 25.80130005 -52.5223999 1.38259995
480 1 23.99500084 -48.91019821 1.382580042
481 1 24.89819908 -50.71630096 2.810460091
28 1 26.70439911 -54.32849884 2.810480118
33 1 26.70420074 -49.8132019 1.382590055
484 1 14.06120014 -47.10409927 2.810440063
485 1 15.8671999 -46.20100021 1.382570028
487 1 14.06060028 -42.58879852 1.382550001
488 1 14.96389961 -44.39490128 2.81043005
489 1 16.77000046 -43.4919014 1.382550001
490 1 17.67320061 -45.29800034 2.81043005
496 1 14.96329975 -39.87969971 1.382539988
497 1 15.86660004 -41.68579865 2.810410023
498 1 17.67259979 -40.78269958 1.382539988
486 1 18.57649994 -47.10409927 1.382570028
491 1 19.47929955 -44.39490128 1.382560015
492 1 20.38249969 -46.20100021 2.81043005
493 1 22.18849945 -45.29800034 1.382560015
499 1 18.57600021 -42.58879852 2.810420036
500 1 20.38199997 -41.68579865 1.382550001
501 1 21.2852993 -43.4919014 2.810420036
505 1 19.47859955 -39.87969971 2.810400009
506 1 22.18790054 -40.78269958 2.810410023
508 1 24.89730072 -41.68579865 2.810410023
494 1 23.09180069 -47.10409927 2.810440063
495 1 24.89780045 -46.20100021 1.382570028
502 1 23.09129906 -42.58879852 1.382550001
503 1 23.9946003 -44.39490128 2.81043005
504 1 25.80060005 -43.4919014 1.382550001
507 1 23.9939003 -39.87969971 1.382539988
57 1 26.70389938 -45.29800034 2.81043005
64 1 26.70319939 -40.78269958 1.382539988
509 1 14.05990028 -38.07360077 2.810400009
510 1 15.86590004 -37.17060089 1.382529974
511 1 16.76930046 -38.97669983 2.810400009
514 1 14.05900002 -33.55849838 1.38251996
515 1 14.96249962 -35.36449814 2.810389996
516 1 16.76840019 -34.46149826 1.38251996
517 1 17.67180061 -36.26760101 2.810389996
524 1 15.86499977 -32.6554985 2.810379982
512 1 18.57519913 -38.07360077 1.382529974
513 1 21.2845993 -38.97669983 1.382529974
518 1 19.47780037 -35.36449814 1.38251996
519 1 20.38120079 -37.17060089 2.810389996
520 1 22.18709946 -36.26760101 1.38251996
525 1 18.57430077 -33.55849838 2.810389996
526 1 20.38030052 -32.6554985 1.38251996
527 1 21.28370094 -34.46149826 2.810389996
521 1 23.09049988 -38.07360077 2.810400009
522 1 24.89649963 -37.17060089 1.382529974
523 1 25.79990005 -38.97669983 2.810400009
528 1 23.08959961 -33.55849838 1.38251996
529 1 23.99309921 -35.36449814 2.810389996
530 1 25.79899979 -34.46149826 1.38251996
531 1 24.89559937 -32.6554985 2.810379982
86 1 26.70240021 -36.26760101 2.810389996
532 1 14.96150017 -30.84939957 1.38251996
533 1 17.67090034 -31.75239944 1.38251996
534 1 14.05809975 -29.04330063 2.810389996
535 1 15.86400032 -28.14030075 1.38251996
536 1 16.76749992 -29.94639969 2.810389996
542 1 14.05720043 -24.52820015 1.382529974
543 1 14.9605999 -26.33429909 2.810389996
544 1 16.76659966 -25.43120003 1.382529974
545 1 17.67000008 -27.23730087 2.810389996
537 1 18.5734005 -29.04330063 1.38251996
538 1 19.47680092 -30.84939957 2.810379982
539 1 21.28280067 -29.94639969 1.38251996
540 1 22.18619919 -31.75239944 2.810379982
546 1 19.47590065 -26.33429909 1.382529974
547 1 20.37929916 -28.14030075 2.810389996
548 1 22.18530083 -27.23730087 1.38251996
552 1 18.57250023 -24.52820015 2.810400009
553 1 21.28190041 -25.43120003 2.810400009
541 1 23.99209976 -30.84939957 1.38251996
549 1 23.08869934 -29.04330063 2.810389996
550 1 24.8946991 -28.14030075 1.38251996
551 1 25.79809952 -29.94639969 2.810389996
554 1 23.08779907 -24.52820015 1.382529974
555 1 23.99119949 -26.33429909 2.810389996
556 1 25.79719925 -25.43120003 1.382529974
109 1 26.70149994 -31.75239944 1.38251996
116 1 26.70059967 -27.23730087 2.810389996
557 1 14.95979977 -21.81909943 1.382550001
558 1 15.86320019 -23.62509918 2.810400009
559 1 17.6692009 -22.7220993 1.382539988
561 1 14.05650043 -20.01300049 2.810420036
562 1 15.86250019 -19.10989952 1.382560015
563 1 16.76580048 -20.91600037 2.810420036
570 1 14.95930004 -17.30380058 2.81043005
571 1 16.76530075 -16.4008007 1.382570028
572 1 17.66860008 -18.20689964 2.81043005
560 1 20.37849998 -23.62509918 1.382539988
564 1 18.57180023 -20.01300049 1.382550001
565 1 19.47509956 -21.81909943 2.810410023
566 1 21.28109932 -20.91600037 1.382550001
567 1 22.18449974 -22.7220993 2.810410023
573 1 19.47459984 -17.30380058 1.382570028
574 1 20.37779999 -19.10989952 2.81043005
575 1 22.18390083 -18.20689964 1.382560015
579 1 21.28059959 -16.4008007 2.810440063
568 1 23.9904995 -21.81909943 1.382550001
569 1 24.89380074 -23.62509918 2.810400009
576 1 23.08709908 -20.01300049 2.810420036
577 1 24.89319992 -19.10989952 1.382560015
578 1 25.79649925 -20.91600037 2.810420036
580 1 23.98990059 -17.30380058 2.81043005
581 1 25.79590034 -16.4008007 1.382570028
138 1 26.69980049 -22.7220993 1.382539988
148 1 26.69919968 -18.20689964 2.81043005
582 1 14.05599976 -15.49769974 1.382580042
584 1 14.95890045 -12.78859997 1.382590055
585 1 15.86209965 -14.59469986 2.810450077
586 1 17.66819954 -13.69159985 1.382590055
590 1 14.05580044 -10.98250008 2.810470104
591 1 15.86180019 -10.07929993 1.38259995
592 1 16.76499939 -11.88549995 2.810460091
599 1 14.95870018 -8.273130417 2.810450077
600 1 17.66799927 -9.176400185 2.810480118
587 1 18.57139969 -15.49769974 2.810440063
588 1 20.37739944 -14.59469986 1.382580042
593 1 18.57110023 -10.98250008 1.38259995
594 1 19.4741993 -12.78859997 2.810460091
595 1 21.28030014 -11.88549995 1.382590055
596 1 22.18350029 -13.69159985 2.810450077
601 1 19.47400093 -8.273130417 1.382580042
602 1 20.37719917 -10.07929993 2.810460091
603 1 22.18330002 -9.176400185 1.382609963
607 1 23.98929977 -8.273130417 2.810450077
589 1 23.08670044 -15.49769974 1.382580042
597 1 23.98950005 -12.78859997 1.382590055
598 1 24.8927002 -14.59469986 2.810450077
604 1 23.08639908 -10.98250008 2.810470104
605 1 24.89249992 -10.07929993 1.38259995
606 1 25.79560089 -11.88549995 2.810460091
167 1 26.69879913 -13.69159985 1.382590055
180 1 26.69860077 -9.176400185 2.810480118
608 1 14.05550003 -6.466700077 1.382439971
609 1 16.76499939 -7.370409966 1.382670045
610 1 14.96090031 -3.759439945 1.38586998
611 1 15.86200047 -5.564720154 2.81092
612 1 17.66690063 -4.660280228 1.38143003
618 1 14.03310013 -1.958629966 2.832380056
619 1 15.84300041 -1.084059954 1.317080021
620 1 16.76860046 -2.848479986 2.801660061
643 1 17.78409958 -1.700539997e-06 0.2379769981
613 1 18.57080078 -6.466700077 2.810309887
614 1 20.37730026 -5.564720154 1.383059978
615 1 21.28030014 -7.370409966 2.810539961
621 1 18.54840088 -1.958629966 1.404520035
622 1 19.4762001 -3.759439945 2.813740015
623 1 21.28389931 -2.848479986 1.373790026
624 1 22.18219948 -4.660280228 2.809299946
628 1 20.35829926 -1.084059954 2.744940042
633 1 22.29940033 -1.700350026e-06 1.66584003
616 1 23.08609962 -6.466700077 1.382439971
617 1 25.79560089 -7.370409966 1.382670045
625 1 23.99150085 -3.759439945 1.38586998
626 1 24.89259911 -5.564720154 2.81092
627 1 25.79920006 -2.848479986 2.801660061
629 1 24.87360001 -1.084059954 1.317080021
630 1 23.06369972 -1.958629966 2.832380056
195 1 26.69750023 -4.660280228 1.38143003
635 1 26.81469917 -1.700350026e-06 0.2379769981
631 1 17.66690063 4.660280228 1.95025003
642 1 15.84300041 1.084059954 2.014610052
648 1 16.76499939 7.370409966 1.949020028
649 1 15.86200047 5.564720154 0.5207669735
650 1 14.05550003 6.466690063 1.949239969
652 1 14.03299999 1.958629966 0.4993059933
653 1 14.96090031 3.759439945 1.94580996
654 1 16.76860046 2.848479986 0.5300289989
644 1 18.54840088 1.958629966 1.927170038
645 1 20.35829926 1.084059954 0.586748004
646 1 21.28030014 7.370409966 0.5211529732
647 1 18.57080078 6.466690063 0.5213779807
651 1 21.28389931 2.848479986 1.957900047
655 1 22.18219948 4.660280228 0.5223870277
656 1 20.37730026 5.564720154 1.948629975
657 1 19.4762001 3.759439945 0.5179489851
641 1 23.06369972 1.958629966 0.4993059933
640 1 23.99150085 3.759439945 1.94580996
632 1 25.79560089 7.370409966 1.949020028
634 1 24.87360001 1.084059954 2.014610052
639 1 25.79920006 2.848479986 0.5300289989
636 1 24.89259911 5.564720154 0.5207669735
637 1 23.08609962 6.466690063 1.949239969
638 1 26.69750023 4.660280228 1.95025003
671 1 15.86209965 14.59469986 0.521239996
672 1 14.05599976 15.49769974 1.949110031
673 1 14.95860004 8.273130417 0.521238029
674 1 15.86180019 10.07929993 1.949090004
675 1 17.66799927 9.176400185 0.5212100148
679 1 17.66810036 13.69159985 1.949100018
680 1 16.76499939 11.88549995 0.5212280154
681 1 14.95890045 12.78859997 1.949100018
682 1 14.05580044 10.98250008 0.5212230086
660 1 22.1833992 13.69159985 0.5212360024
668 1 19.47400093 8.273130417 1.949100018
669 1 22.18330002 9.176400185 1.94907999
670 1 18.57130051 15.49769974 0.5212439895
676 1 18.57110023 10.98250008 1.949090004
677 1 20.37739944 14.59469986 1.949110031
678 1 19.4741993 12.78859997 0.5212309957
683 1 20.37709999 10.07929993 0.5212240219
684 1 21.28030014 11.88549995 1.949090004
658 1 24.8927002 14.59469986 0.521239996
659 1 23.08659935 15.49769974 1.949110031
661 1 26.69869995 13.69159985 1.949100018
662 1 23.98929977 8.273130417 0.521238029
663 1 24.89240074 10.07929993 1.949090004
664 1 26.69860077 9.176400185 0.5212100148
665 1 25.79560089 11.88549995 0.5212280154
666 1 23.98950005 12.78859997 1.949100018
667 1 23.08639908 10.98250008 0.5212230086
694 1 16.76530075 16.4008007 1.949110031
695 1 15.86310005 23.62520027 0.5212849975
699 1 14.95919991 17.30380058 0.521254003
703 1 17.66909981 22.7220993 1.949149966
704 1 16.76580048 20.91600037 0.5212720037
705 1 14.95979977 21.81909943 1.949139953
706 1 14.05650043 20.01300049 0.5212680101
707 1 15.86250019 19.10989952 1.949130058
708 1 17.6685009 18.20689964 0.5212579966
696 1 19.47450066 17.30380058 1.949120045
697 1 21.28059959 16.4008007 0.5212489963
698 1 22.18379974 18.20689964 1.949120045
700 1 22.18440056 22.7220993 0.521281004
701 1 20.3784008 23.62520027 1.949149966
702 1 19.47509956 21.81909943 0.5212770104
709 1 18.57180023 20.01300049 1.949130058
710 1 20.37779999 19.10989952 0.5212630033
711 1 21.28109932 20.91600037 1.949139953
685 1 24.89380074 23.62520027 0.5212849975
686 1 25.79590034 16.4008007 1.949110031
687 1 26.6996994 22.7220993 1.949149966
688 1 25.79640007 20.91600037 0.5212720037
689 1 23.99040031 21.81909943 1.949139953
690 1 23.08709908 20.01300049 0.5212680101
691 1 26.69910049 18.20689964 0.5212579966