# LAMMPS data file written by OVITO
600 atoms
2 atom types
0 19.15679932 xlo xhi
-64.20400238 64.20400238 ylo yhi
0 2.855730057 zlo zhi

Atoms

2 1 1.912230015 -63.30289841 0.9519060254
4 1 1.286569953 -61.43849945 2.379770041
5 1 3.228049994 -60.89070129 0.9519000053
6 1 3.887789965 -62.88949966 2.379770041
7 1 5.747189999 -62.08039856 0.9519029856
8 1 6.349699974 -63.98529816 2.379770041
9 1 8.297840118 -63.30289841 0.9519060254
14 1 5.114059925 -60.19200134 2.379770041
16 1 7.672180176 -61.43849945 2.379770041
3 1 0.6494619846 -59.54470062 0.9518989921
10 1 0.01271590032 -57.63959885 2.379760027
11 1 1.934049964 -57.01919937 0.9518949986
12 1 2.577389956 -58.94689941 2.379760027
13 1 4.481619835 -58.28390121 0.9518970251
18 1 3.844890118 -56.3708992 2.379760027
20 1 8.319660187 -57.01919937 0.9518949986
15 1 7.035069942 -59.54470062 0.9518989921
21 1 8.963000298 -58.94689941 2.379760027
19 1 6.398330212 -57.63959885 2.379760027
22 1 0.6535339952 -53.18069839 0.9518899918
23 1 1.293269992 -55.09840012 2.379760027
24 1 3.206890106 -54.45610046 0.9518920183
28 1 2.568289995 -52.54069901 2.379760027
25 1 5.760650158 -55.72900009 0.951892972
30 1 5.12237978 -53.81570053 2.379760027
31 1 7.039140224 -53.18069839 0.9518899918
32 1 7.678880215 -55.09840012 2.379760027
39 1 8.953900337 -52.54069901 2.379760027
26 1 0.01421280019 -51.2641983 2.379750013
27 1 1.929440022 -50.62509918 0.9518870115
29 1 4.483739853 -51.90119934 0.9518889785
34 1 1.290519953 -48.70949936 2.379750013
35 1 3.844909906 -49.98609924 2.379750013
40 1 7.676129818 -48.70949936 2.379750013
36 1 5.760700226 -49.34820175 0.9518859982
37 1 6.399819851 -51.2641983 2.379750013
38 1 8.315050125 -50.62509918 0.9518870115
41 1 0.6516789794 -46.79389954 0.951883018
42 1 3.206049919 -48.07080078 0.9518839717
43 1 0.01295819972 -44.87829971 2.379750013
44 1 1.928599954 -44.23970032 0.9518809915
45 1 2.567270041 -46.15530014 2.379750013
46 1 4.482950211 -45.51679993 0.9518820047
47 1 5.121739864 -47.43249893 2.379750013
48 1 7.037290096 -46.79389954 0.951883018
55 1 6.398570061 -44.87829971 2.379750013
56 1 8.314209938 -44.23970032 0.9518809915
57 1 8.952879906 -46.15530014 2.379750013
50 1 0.651237011 -40.40829849 0.9518790245
51 1 1.289960027 -42.32400131 2.379750013
52 1 3.205610037 -41.6855011 0.9518799782
53 1 3.844269991 -43.6012001 2.379750013
60 1 7.675570011 -42.32400131 2.379750013
54 1 5.75992012 -42.96260071 0.9518799782
58 1 5.121240139 -41.0469017 2.379750013
59 1 7.036849976 -40.40829849 0.9518790245
62 1 0.01233450044 -38.49269867 2.37974
63 1 1.927860022 -37.85409927 0.9518780112
64 1 2.56682992 -39.76979828 2.37974
65 1 4.48239994 -39.13119888 0.9518780112
69 1 3.843349934 -37.21559906 2.37974
70 1 5.758820057 -36.57699966 0.9518780112
71 1 6.397940159 -38.49269867 2.37974
72 1 8.313469887 -37.85409927 0.9518780112
73 1 8.952440262 -39.76979828 2.37974
66 1 0.6493120193 -34.02280045 0.9518769979
67 1 1.288660049 -35.93849945 2.37974
68 1 3.204099894 -35.29990005 0.9518769979
74 1 2.564709902 -33.38430023 2.37974
75 1 4.480110168 -32.74580002 0.9518769979
81 1 0.009901500307 -32.10720062 2.37974
76 1 5.119510174 -34.66139984 2.37974
77 1 7.034920216 -34.02280045 0.9518769979
78 1 7.674270153 -35.93849945 2.37974
80 1 8.950320244 -33.38430023 2.37974
88 1 6.395510197 -32.10720062 2.37974
82 1 1.925310016 -31.46870041 0.9518769979
84 1 1.286000013 -29.5529995 2.37974
85 1 3.201469898 -28.91449928 0.9518780112
86 1 3.840729952 -30.83009911 2.37974
87 1 5.756159782 -30.1916008 0.9518769979
89 1 8.310919762 -31.46870041 0.9518769979
94 1 5.116960049 -28.27589989 2.37974
96 1 7.671609879 -29.5529995 2.37974
83 1 0.6468729973 -27.63739967 0.9518780112
91 1 1.923570037 -25.08309937 0.9518790245
92 1 2.562419891 -26.99880028 2.37974
93 1 4.477980137 -26.36030006 0.9518790245
98 1 3.83920002 -24.44459915 2.379750013
90 1 0.007965680212 -25.72170067 2.37974
99 1 6.39357996 -25.72170067 2.37974
101 1 8.948030472 -26.99880028 2.37974
100 1 8.30918026 -25.08309937 0.9518790245
95 1 7.032479763 -27.63739967 0.9518780112
102 1 0.6462249756 -21.25180054 0.9518820047
103 1 1.284880042 -23.16749954 2.379750013
104 1 3.200530052 -22.52890015 0.9518809915
108 1 2.561840057 -20.61319923 2.379750013
105 1 5.754849911 -23.80610085 0.9518799782
110 1 5.11619997 -21.89039993 2.379750013
111 1 7.031829834 -21.25180054 0.9518820047
112 1 7.670489788 -23.16749954 2.379750013
119 1 8.947449684 -20.61319923 2.379750013
107 1 1.923040032 -18.69759941 0.9518839717
109 1 4.477519989 -19.97480011 0.951883018
114 1 1.284070015 -16.78179932 2.379750013
115 1 3.838730097 -18.05929947 2.379750013
122 1 3.199860096 -16.1439991 0.9518859982
106 1 0.007492620032 -19.33620071 2.379750013
120 1 7.669680119 -16.78179932 2.379750013
116 1 5.75425005 -17.4204998 0.951884985
117 1 6.393099785 -19.33620071 2.379750013
118 1 8.308650017 -18.69759941 0.9518839717
121 1 0.644931972 -14.86590004 0.9518880248
124 1 1.922359943 -12.31439972 0.951891005
125 1 2.561009884 -14.22889996 2.379750013
126 1 4.47645998 -13.58940029 0.9518889785
123 1 0.005598919932 -12.94939995 2.379760027
127 1 5.115330219 -15.50489998 2.379750013
128 1 7.030539989 -14.86590004 0.9518880248
135 1 6.391210079 -12.94939995 2.379760027
136 1 8.307970047 -12.31439972 0.951891005
137 1 8.946619987 -14.22889996 2.379750013
130 1 0.6463850141 -8.490440369 0.9518960118
131 1 1.284080029 -10.40110016 2.379760027
132 1 3.199830055 -9.759160042 0.9518939853
133 1 3.83784008 -11.67399979 2.379760027
140 1 7.669690132 -10.40110016 2.379760027
138 1 5.11067009 -9.110899925 2.379760027
139 1 7.032000065 -8.490440369 0.9518960118
134 1 5.751460075 -11.03170013 0.9518920183
143 1 1.930629969 -5.938020229 0.9518989921
144 1 2.563080072 -7.846179962 2.379760027
145 1 4.467309952 -7.183189869 0.9518970251
147 1 1.297479987 -4.049660206 2.379770041
149 1 3.8166399 -5.239409924 2.379770041
142 1 0.009624710307 -6.585330009 2.379760027
150 1 5.758110046 -4.691599846 0.9519010186
151 1 6.39523983 -6.585330009 2.379760027
152 1 8.316240311 -5.938020229 0.9518989921
153 1 8.948690414 -7.846179962 2.379760027
158 1 7.68309021 -4.049660206 2.379770041
146 1 0.6949449778 -2.144740105 0.9519050121
148 1 3.156879902 -3.240590096 0.9519039989
154 1 2.644279957 -0.9630830288 2.379780054
155 1 4.657619953 -0.9630659819 0.9519109726
160 1 9.02989006 -0.9630830288 2.379780054
156 1 5.13244009 -2.827169895 2.379770041
157 1 7.080560207 -2.144740105 0.9519050121
159 1 9.542490005 -3.240590096 0.9519039989
166 1 0.6949229836 0.2186170071 0.9519169927
167 1 1.297430038 2.123549938 2.379790068
168 1 3.156840086 1.314450026 0.9519180059
169 1 3.816570044 3.313280106 2.379790068
174 1 1.930559993 4.011899948 0.9519230127
161 1 5.132400036 0.9010459781 2.379780054
163 1 7.683040142 2.123549938 2.379790068
164 1 7.080530167 0.2186170071 0.9519169927
170 1 5.758059978 2.765470028 0.9519209862
172 1 8.316169739 4.011899948 0.9519230127
469 1 9.542449951 1.314450026 0.9519180059
165 1 0.6462990046 6.564320087 0.951925993
175 1 2.562999964 5.920060158 2.379790068
176 1 4.467229843 5.257070065 0.9519249797
179 1 3.199739933 7.833030224 0.9519280195
162 1 0.009552460164 4.659210205 2.379790068
178 1 7.031909943 6.564320087 0.951925993
171 1 6.395160198 4.659210205 2.379790068
173 1 8.948610306 5.920060158 2.379790068
177 1 5.110569954 7.184780121 2.379790068
182 1 1.283980012 8.474969864 2.379790068
183 1 3.837729931 9.747859955 2.379800081
188 1 1.922250032 10.38829994 0.9519309998
190 1 4.476329803 11.66329956 0.9519330263
198 1 0.005481210072 11.02330017 2.379800081
180 1 7.669589996 8.474980354 2.379790068
184 1 5.75135994 9.105529785 0.9519299865
185 1 6.391089916 11.02330017 2.379800081
186 1 8.307860374 10.38829994 0.9519309998
189 1 2.560889959 12.30280018 2.379800081
195 1 3.199719906 14.21780014 0.9519360065
196 1 0.6448010206 12.93980026 0.95193398
197 1 1.283929944 14.85569954 2.379800081
192 1 7.030409813 12.93980026 0.95193398
193 1 7.669539928 14.85569954 2.379800081
181 1 5.754099846 15.49440002 0.9519370198
187 1 8.946499825 12.30280018 2.379800081
191 1 5.115190029 13.5788002 2.379800081
202 1 1.922880054 16.77140045 0.9519379735
203 1 2.561680079 18.68709946 2.379810095
204 1 4.477359772 18.04870033 0.9519400001
210 1 0.6460570097 19.32570076 0.9519410133
194 1 3.838579893 16.13319969 2.379800081
216 1 0.007334299851 17.40999985 2.379800081
199 1 6.392950058 17.40999985 2.379800081
200 1 8.30850029 16.77140045 0.9519379735
201 1 8.947290421 18.68709946 2.379810095
205 1 5.116030216 19.96430016 2.379810095
206 1 7.031670094 19.32570076 0.9519410133
208 1 1.923390031 23.15699959 0.9519429803
211 1 1.284700036 21.24139977 2.379810095
212 1 3.200350046 20.60280037 0.9519410133
213 1 3.839020014 22.51849937 2.379810095
217 1 0.007777989842 23.79560089 2.379810095
215 1 6.393390179 23.79560089 2.379810095
214 1 5.754670143 21.87989998 0.9519420266
207 1 7.67031002 21.24139977 2.379810095
209 1 8.309000015 23.15699959 0.9519429803
219 1 2.562220097 25.0727005 2.379810095
220 1 4.477789879 24.4340992 0.9519439936
226 1 0.6466789842 25.7112999 0.9519439936
227 1 1.28579998 27.62689972 2.379810095
228 1 3.201280117 26.98839951 0.9519439936
218 1 8.947839737 25.0727005 2.379810095
221 1 5.116769791 26.34980011 2.379810095
222 1 7.032289982 25.7112999 0.9519439936
223 1 7.671410084 27.62689972 2.379810095
224 1 0.6491129994 32.09669876 0.9519450068
229 1 3.840529919 28.90399933 2.379810095
234 1 1.925109982 29.54260063 0.9519450068
235 1 2.564510107 31.45820045 2.379810095
236 1 4.479909897 30.81970024 0.9519450068
237 1 0.009701799601 30.18110085 2.379810095
225 1 7.034719944 32.09669876 0.9519450068
230 1 5.755959988 28.26549911 0.9519450068
231 1 6.395319939 30.18110085 2.379810095
232 1 8.310720444 29.54260063 0.9519450068
233 1 8.950119972 31.45820045 2.379810095
242 1 1.288460016 34.01240158 2.379810095
243 1 3.203900099 33.37379837 0.9519450068
244 1 3.843159914 35.28950119 2.379810095
249 1 1.927659988 35.9280014 0.9519439936
238 1 5.119309902 32.73529816 2.379810095
239 1 7.674079895 34.01240158 2.379810095
245 1 5.758629799 34.65090179 0.9519450068
247 1 8.313269615 35.9280014 0.9519439936
240 1 3.205430031 39.75939941 0.9519429803
241 1 0.6510480046 38.48220062 0.9519429803
250 1 2.5666399 37.84370041 2.379810095
251 1 4.482210159 37.20510101 0.9519439936
254 1 0.01214080025 36.5666008 2.379810095
246 1 6.397749901 36.5666008 2.379810095
248 1 8.952260017 37.84370041 2.379810095
252 1 5.121049881 39.12080002 2.379810095
253 1 7.036660194 38.48220062 0.9519429803
257 1 1.289780021 40.39789963 2.379810095
258 1 3.844099998 41.67499924 2.379810095
263 1 1.928419948 42.31349945 0.9519410133
265 1 4.48277998 43.59069824 0.9519400001
272 1 0.01279000007 42.95209885 2.379810095
255 1 7.675389767 40.39789963 2.379810095
259 1 5.759739876 41.03649902 0.9519420266
260 1 6.39839983 42.95209885 2.379810095
261 1 8.314040184 42.31349945 0.9519410133
264 1 2.567110062 44.22909927 2.379810095
269 1 3.205899954 46.14459991 0.9519379735
270 1 1.290369987 46.78340149 2.379800081
271 1 0.6515210271 44.86780167 0.9519389868
273 1 3.844769955 48.06000137 2.379800081
256 1 5.760560036 47.42210007 0.9519370198
262 1 8.952719688 44.22909927 2.379810095
266 1 5.121580124 45.50640106 2.379800081
267 1 7.037129879 44.86780167 0.9519389868
268 1 7.675990105 46.78340149 2.379800081
277 1 1.929299951 48.69900131 0.9519349933
278 1 2.568170071 50.61460114 2.379800081
279 1 4.483610153 49.97510147 0.95193398
285 1 0.653415978 51.25450134 0.951932013
291 1 0.01408160012 49.33810043 2.379800081
274 1 6.399690151 49.33810043 2.379800081
275 1 8.314909935 48.69900131 0.9519349933
276 1 8.953780174 50.61460114 2.379800081
280 1 5.122270107 51.88959885 2.379800081
281 1 7.039030075 51.25450134 0.951932013
283 1 1.933959961 55.0929985 0.9519280195
286 1 1.293159962 53.17229843 2.379800081
287 1 3.206779957 52.52999878 0.9519309998
288 1 3.844789982 54.44480133 2.379790068
292 1 0.01262999978 55.71350098 2.379790068
290 1 6.398240089 55.71350098 2.379790068
282 1 7.678770065 53.17229843 2.379800081
284 1 8.319569588 55.0929985 0.9519280195
289 1 5.760550022 53.80289841 0.9519289732
294 1 2.577310085 57.02080154 2.379790068
295 1 4.481540203 56.35779953 0.951925993
301 1 0.6493890285 57.61859894 0.951924026
302 1 1.286509991 59.51229858 2.379790068
303 1 3.227989912 58.96450043 0.9519219995
293 1 8.962929726 57.02080154 2.379790068
296 1 5.113999844 58.26589966 2.379790068
297 1 7.034999847 57.61859894 0.951924026
298 1 7.672120094 59.51240158 2.379790068
305 1 5.747139931 60.15430069 0.9519199729
299 1 4.40034008 63.24089813 0.9519109726
300 1 2.387010098 63.24089813 2.379780054
304 1 3.887739897 60.96340179 2.379780054
309 1 1.91218996 61.37680054 0.9519169927
308 1 8.772620201 63.24089813 2.379780054
306 1 6.349679947 62.05920029 2.379780054
307 1 8.297800064 61.37680054 0.9519169927
311 1 10.27340031 -62.88949966 2.379770041
312 1 12.1328001 -62.08039856 0.9519029856
313 1 12.73530006 -63.98529816 2.379770041
316 1 11.49969959 -60.19200134 2.379770041
318 1 14.05780029 -61.43849945 2.379770041
17 1 9.613659859 -60.89070129 0.9519000053
314 1 14.68340015 -63.30289841 0.9519060254
319 1 15.9993 -60.89070129 0.9519000053
320 1 16.6590004 -62.88949966 2.379770041
321 1 18.51840019 -62.08039856 0.9519029856
327 1 17.88529968 -60.19200134 2.379770041
1 1 19.1208992 -63.98529816 2.379770041
315 1 10.8671999 -58.28390121 0.9518970251
317 1 13.42070007 -59.54470062 0.9518989921
322 1 10.23050022 -56.3708992 2.379760027
323 1 12.78390026 -57.63959885 2.379760027
324 1 14.70530033 -57.01919937 0.9518949986
325 1 15.34860039 -58.94689941 2.379760027
326 1 17.25279999 -58.28390121 0.9518970251
328 1 16.61610031 -56.3708992 2.379760027
329 1 12.14630032 -55.72900009 0.951892972
331 1 11.50800037 -53.81570053 2.379760027
332 1 13.42479992 -53.18069839 0.9518899918
333 1 14.06449986 -55.09840012 2.379760027
33 1 9.592499733 -54.45610046 0.9518920183
334 1 15.97809982 -54.45610046 0.9518920183
335 1 18.53190041 -55.72900009 0.951892972
340 1 15.33950043 -52.54069901 2.379760027
342 1 17.89360046 -53.81570053 2.379760027
330 1 10.86929989 -51.90119934 0.9518889785
336 1 10.23050022 -49.98609924 2.379750013
337 1 12.14630032 -49.34820175 0.9518859982
338 1 12.78540039 -51.2641983 2.379750013
343 1 14.06169987 -48.70949936 2.379750013
339 1 14.70069981 -50.62509918 0.9518870115
341 1 17.25499916 -51.90119934 0.9518889785
344 1 16.61610031 -49.98609924 2.379750013
345 1 18.53190041 -49.34820175 0.9518859982
346 1 10.86859989 -45.51679993 0.9518820047
347 1 11.50739956 -47.43249893 2.379750013
348 1 13.4229002 -46.79389954 0.951883018
352 1 12.78419971 -44.87829971 2.379750013
49 1 9.591659546 -48.07080078 0.9518839717
349 1 15.97729969 -48.07080078 0.9518839717
353 1 14.69979954 -44.23970032 0.9518809915
354 1 15.33850002 -46.15530014 2.379750013
355 1 17.25419998 -45.51679993 0.9518820047
356 1 17.89299965 -47.43249893 2.379750013
350 1 10.22990036 -43.6012001 2.379750013
351 1 12.14550018 -42.96260071 0.9518799782
357 1 11.5067997 -41.0469017 2.379750013
358 1 13.42249966 -40.40829849 0.9518790245
359 1 14.06120014 -42.32400131 2.379750013
61 1 9.591219902 -41.6855011 0.9518799782
360 1 15.97679996 -41.6855011 0.9518799782
361 1 16.6154995 -43.6012001 2.379750013
362 1 18.53109932 -42.96260071 0.9518799782
363 1 17.89249992 -41.0469017 2.379750013
364 1 10.86800003 -39.13119888 0.9518780112
365 1 10.22900009 -37.21559906 2.37974
366 1 12.14439964 -36.57699966 0.9518780112
367 1 12.78359985 -38.49269867 2.37974
368 1 14.69909954 -37.85409927 0.9518780112
369 1 15.33810043 -39.76979828 2.37974
370 1 17.25359917 -39.13119888 0.9518780112
376 1 16.61459923 -37.21559906 2.37974
377 1 18.53000069 -36.57699966 0.9518780112
371 1 10.86569977 -32.74580002 0.9518769979
372 1 11.50510025 -34.66139984 2.37974
373 1 13.4204998 -34.02280045 0.9518769979
374 1 14.05990028 -35.93849945 2.37974
79 1 9.589710236 -35.29990005 0.9518769979
383 1 12.78110027 -32.10720062 2.37974
375 1 15.97529984 -35.29990005 0.9518769979
378 1 15.33590031 -33.38430023 2.37974
379 1 17.25130081 -32.74580002 0.9518769979
380 1 17.89069939 -34.66139984 2.37974
381 1 10.22630024 -30.83009911 2.37974
382 1 12.14179993 -30.1916008 0.9518769979
97 1 9.587080002 -28.91449928 0.9518780112
386 1 11.50259972 -28.27589989 2.37974
388 1 14.05720043 -29.5529995 2.37974
384 1 14.69649982 -31.46870041 0.9518769979
389 1 15.97270012 -28.91449928 0.9518780112
390 1 16.61190033 -30.83009911 2.37974
391 1 18.52739906 -30.1916008 0.9518769979
397 1 17.88820076 -28.27589989 2.37974
385 1 10.86359978 -26.36030006 0.9518790245
387 1 13.41810036 -27.63739967 0.9518780112
392 1 10.22480011 -24.44459915 2.379750013
393 1 12.7791996 -25.72170067 2.37974
394 1 14.69480038 -25.08309937 0.9518790245
395 1 15.33360004 -26.99880028 2.37974
396 1 17.24920082 -26.36030006 0.9518790245
398 1 16.61039925 -24.44459915 2.379750013
399 1 12.14050007 -23.80610085 0.9518799782
401 1 11.50179958 -21.89039993 2.379750013
402 1 13.41740036 -21.25180054 0.9518820047
403 1 14.05609989 -23.16749954 2.379750013
113 1 9.586139679 -22.52890015 0.9518809915
404 1 15.97169971 -22.52890015 0.9518809915
405 1 18.52610016 -23.80610085 0.9518799782
410 1 15.33310032 -20.61319923 2.379750013
412 1 17.88739967 -21.89039993 2.379750013
400 1 10.86310005 -19.97480011 0.951883018
406 1 10.22430038 -18.05929947 2.379750013
407 1 12.13990021 -17.4204998 0.951884985
408 1 12.77869987 -19.33620071 2.379750013
413 1 14.05529976 -16.78179932 2.379750013
129 1 9.5854702 -16.1439991 0.9518859982
409 1 14.6942997 -18.69759941 0.9518839717
411 1 17.24869919 -19.97480011 0.951883018
414 1 16.60989952 -18.05929947 2.379750013
415 1 18.52549934 -17.4204998 0.951884985
419 1 15.97109985 -16.1439991 0.9518859982
416 1 10.86209965 -13.58940029 0.9518889785
417 1 11.50090027 -15.50489998 2.379750013
418 1 13.41619968 -14.86590004 0.9518880248
422 1 12.77680016 -12.94939995 2.379760027
423 1 14.6935997 -12.31439972 0.951891005
424 1 15.33220005 -14.22889996 2.379750013
425 1 17.24769974 -13.58940029 0.9518889785
426 1 17.8864994 -15.50489998 2.379750013
420 1 10.22350025 -11.67399979 2.379760027
421 1 12.13710022 -11.03170013 0.9518920183
427 1 11.49629974 -9.110899925 2.379760027
428 1 13.41759968 -8.490440369 0.9518960118
429 1 14.05529976 -10.40110016 2.379760027
141 1 9.585439682 -9.759160042 0.9518939853
433 1 17.88190079 -9.110899925 2.379760027
430 1 15.97109985 -9.759160042 0.9518939853
431 1 16.60910034 -11.67399979 2.379760027
432 1 18.52269936 -11.03170013 0.9518920183
434 1 10.85289955 -7.183189869 0.9518970251
435 1 10.20219994 -5.239409924 2.379770041
436 1 12.14369965 -4.691599846 0.9519010186
437 1 12.78079987 -6.585330009 2.379760027
444 1 14.06869984 -4.049660206 2.379770041
438 1 14.70180035 -5.938020229 0.9518989921
439 1 15.33430004 -7.846179962 2.379760027
440 1 17.2385006 -7.183189869 0.9518970251
446 1 16.58790016 -5.239419937 2.379770041
447 1 18.52930069 -4.691599846 0.9519010186
441 1 11.04319954 -0.9630659819 0.9519109726
442 1 11.51799965 -2.827169895 2.379770041
443 1 13.46619987 -2.144740105 0.9519050121
445 1 15.92809963 -3.240590096 0.9519039989
448 1 15.41549969 -0.9630830288 2.379780054
449 1 17.42880058 -0.9630659819 0.9519109726
450 1 17.90369987 -2.827169895 2.379770041
452 1 11.51799965 0.9010459781 2.379780054
454 1 14.06869984 2.123549938 2.379790068
458 1 13.46609974 0.2186170071 0.9519169927
459 1 12.14369965 2.765480042 0.9519209862
470 1 10.20219994 3.313280106 2.379790068
451 1 17.90360069 0.9010450244 2.379780054
455 1 15.92809963 1.314450026 0.9519180059
456 1 16.58779907 3.313280106 2.379790068
457 1 18.52930069 2.765480042 0.9519209862
461 1 14.70180035 4.011899948 0.9519230127
460 1 12.78079987 4.659210205 2.379790068
465 1 10.85280037 5.257070065 0.9519249797
466 1 11.49619961 7.184780121 2.379790068
467 1 13.41749954 6.564320087 0.951925993
453 1 9.585350037 7.833040237 0.9519280195
468 1 15.97099972 7.833040237 0.9519280195
464 1 17.8817997 7.184780121 2.379790068
462 1 15.33419991 5.920060158 2.379790068
463 1 17.2385006 5.257070065 0.9519249797
471 1 14.05519962 8.474980354 2.379790068
475 1 12.13700008 9.105529785 0.9519299865
476 1 12.77670002 11.02330017 2.379800081
481 1 10.86190033 11.66329956 0.9519330263
488 1 10.22329998 9.747859955 2.379800081
472 1 16.60899925 9.747859955 2.379800081
473 1 18.52260017 9.105529785 0.9519299865
477 1 14.69349957 10.38829994 0.9519309998
479 1 17.24760056 11.66329956 0.9519330263
474 1 12.13969994 15.49440002 0.9519370198
482 1 11.50080013 13.5788002 2.379800081
483 1 13.41600037 12.93980026 0.95193398
484 1 14.05510044 14.85569954 2.379800081
489 1 9.585330009 14.21780014 0.9519360065
487 1 18.52529907 15.49440002 0.9519370198
485 1 15.97089958 14.21780014 0.9519360065
478 1 15.33209991 12.30280018 2.379800081
480 1 17.88640022 13.5788002 2.379800081
492 1 12.77859974 17.40999985 2.379800081
497 1 10.86299992 18.04870033 0.9519400001
498 1 11.50160027 19.96430016 2.379810095
499 1 13.41730022 19.32570076 0.9519410133
490 1 10.22420025 16.13319969 2.379800081
493 1 14.69410038 16.77140045 0.9519379735
494 1 15.33290005 18.68709946 2.379810095
495 1 17.24860001 18.04870033 0.9519400001
496 1 17.88730049 19.96430016 2.379810095
486 1 16.60980034 16.13319969 2.379800081
500 1 14.05589962 21.24139977 2.379810095
504 1 12.77900028 23.79560089 2.379810095
505 1 12.1402998 21.87989998 0.9519420266
507 1 10.22459984 22.51849937 2.379810095
506 1 9.585960388 20.60280037 0.9519410133
503 1 18.52589989 21.87989998 0.9519420266
491 1 14.69460011 23.15699959 0.9519429803
501 1 15.97159958 20.60280037 0.9519410133
502 1 16.61020088 22.51849937 2.379810095
511 1 10.86340046 24.43420029 0.9519439936
512 1 11.5024004 26.34980011 2.379810095
513 1 13.41790009 25.7112999 0.9519439936
514 1 14.05700016 27.62689972 2.379810095
525 1 9.58687973 26.98839951 0.9519439936
508 1 15.33339977 25.0727005 2.379810095
509 1 17.24900055 24.43420029 0.9519439936
510 1 17.88800049 26.34980011 2.379810095
515 1 15.97249985 26.98839951 0.9519439936
518 1 13.42029953 32.09669876 0.9519450068
519 1 12.14159966 28.26549911 0.9519450068
520 1 12.7809 30.18110085 2.379810095
524 1 10.86550045 30.81959915 0.9519450068
526 1 10.22609997 28.90399933 2.379810095
516 1 16.61179924 28.90399933 2.379810095
517 1 18.5272007 28.26549911 0.9519450068
521 1 14.69629955 29.54260063 0.9519450068
522 1 15.33570004 31.45820045 2.379810095
523 1 17.25110054 30.81959915 0.9519450068
528 1 11.50489998 32.73529816 2.379810095
529 1 14.05970001 34.01240158 2.379810095
534 1 12.14420033 34.65090179 0.9519450068
543 1 9.589509964 33.37379837 0.9519450068
544 1 10.22879982 35.28950119 2.379810095
527 1 17.89049911 32.73529816 2.379810095
530 1 15.97509956 33.37379837 0.9519450068
531 1 16.61440086 35.28950119 2.379810095
532 1 18.52980042 34.65090179 0.9519450068
536 1 14.69890022 35.9280014 0.9519439936
535 1 12.78339958 36.5666008 2.379810095
540 1 10.86779976 37.20510101 0.9519439936
541 1 11.50669956 39.12080002 2.379810095
542 1 13.42230034 38.48220062 0.9519429803
545 1 9.591039658 39.75939941 0.9519429803
533 1 15.97659969 39.75939941 0.9519429803
537 1 15.33790016 37.84370041 2.379810095
538 1 17.2534008 37.20510101 0.9519439936
539 1 17.89229965 39.12080002 2.379810095
546 1 14.06099987 40.39789963 2.379810095
550 1 12.14540005 41.03649902 0.9519420266
551 1 12.7840004 42.95209885 2.379810095
556 1 10.86839962 43.59069824 0.9519400001
562 1 10.22970009 41.67499924 2.379810095
547 1 16.61529922 41.67499924 2.379810095
548 1 18.53100014 41.03649902 0.9519420266
552 1 14.69960022 42.31349945 0.9519410133
554 1 17.25399971 43.59069824 0.9519400001
549 1 12.14620018 47.42210007 0.9519370198
557 1 11.50720024 45.50640106 2.379800081
558 1 13.42269993 44.86780167 0.9519389868
559 1 14.06159973 46.78340149 2.379800081
563 1 9.591509819 46.14459991 0.9519379735
564 1 10.23040009 48.06000137 2.379800081
553 1 15.33829975 44.22909927 2.379810095
555 1 17.89279938 45.50640106 2.379800081
560 1 15.97710037 46.14459991 0.9519379735
561 1 18.53179932 47.42210007 0.9519370198
565 1 16.61599922 48.06000137 2.379800081
567 1 12.78530025 49.33810043 2.379800081
572 1 10.86919975 49.97510147 0.95193398
573 1 11.50790024 51.88959885 2.379800081
574 1 13.42459965 51.25450134 0.951932013
568 1 14.70049953 48.69900131 0.9519349933
569 1 15.33940029 50.61460114 2.379800081
570 1 17.2548008 49.97510147 0.95193398
571 1 17.89349937 51.88959885 2.379800081
575 1 14.06439972 53.17229843 2.379800081
579 1 12.78390026 55.71350098 2.379790068
580 1 12.14620018 53.80289841 0.9519289732
581 1 10.23040009 54.44480133 2.379790068
582 1 9.59239006 52.52999878 0.9519309998
578 1 18.53179932 53.80289841 0.9519289732
566 1 14.7052002 55.0929985 0.9519280195
576 1 15.97799969 52.52999878 0.9519309998
577 1 16.61599922 54.44480133 2.379790068
586 1 10.8671999 56.35779953 0.951925993
587 1 11.49960041 58.26589966 2.379790068
588 1 13.42059994 57.61859894 0.951924026
589 1 14.05770016 59.51229858 2.379790068
594 1 12.1328001 60.15430069 0.9519199729
599 1 9.613599777 58.96450043 0.9519219995
583 1 15.34850025 57.02080154 2.379790068
584 1 17.25279999 56.35779953 0.951925993
585 1 17.8852005 58.26589966 2.379790068
590 1 15.99919987 58.96450043 0.9519219995
592 1 18.51840019 60.15430069 0.9519199729
593 1 10.78600025 63.24089813 0.9519109726
595 1 12.73530006 62.05920029 2.379780054
600 1 10.27340031 60.96340179 2.379780054
591 1 16.6590004 60.96340179 2.379780054
596 1 14.68340015 61.37680054 0.9519169927
597 1 15.15820026 63.24089813 2.379780054
598 1 17.17160034 63.24089813 0.9519109726
310 1 19.1208992 62.05920029 2.379780054

Velocities

2 0 0 0
4 0 0 0
5 0 0 0
6 0 0 0
7 0 0 0
8 0 0 0
9 0 0 0
14 0 0 0
16 0 0 0
3 0 0 0
10 0 0 0
11 0 0 0
12 0 0 0
13 0 0 0
18 0 0 0
20 0 0 0
15 0 0 0
21 0 0 0
19 0 0 0
22 0 0 0
23 0 0 0
24 0 0 0
28 0 0 0
25 0 0 0
30 0 0 0
31 0 0 0
32 0 0 0
39 0 0 0
26 0 0 0
27 0 0 0
29 0 0 0
34 0 0 0
35 0 0 0
40 0 0 0
36 0 0 0
37 0 0 0
38 0 0 0
41 0 0 0
42 0 0 0
43 0 0 0
44 0 0 0
45 0 0 0
46 0 0 0
47 0 0 0
48 0 0 0
55 0 0 0
56 0 0 0
57 0 0 0
50 0 0 0
51 0 0 0
52 0 0 0
53 0 0 0
60 0 0 0
54 0 0 0
58 0 0 0
59 0 0 0
62 0 0 0
63 0 0 0
64 0 0 0
65 0 0 0
69 0 0 0
70 0 0 0
71 0 0 0
72 0 0 0
73 0 0 0
66 0 0 0
67 0 0 0
68 0 0 0
74 0 0 0
75 0 0 0
81 0 0 0
76 0 0 0
77 0 0 0
78 0 0 0
80 0 0 0
88 0 0 0
82 0 0 0
84 0 0 0
85 0 0 0
86 0 0 0
87 0 0 0
89 0 0 0
94 0 0 0
96 0 0 0
83 0 0 0
91 0 0 0
92 0 0 0
93 0 0 0
98 0 0 0
90 0 0 0
99 0 0 0
101 0 0 0
100 0 0 0
95 0 0 0
102 0 0 0
103 0 0 0
104 0 0 0
108 0 0 0
105 0 0 0
110 0 0 0
111 0 0 0
112 0 0 0
119 0 0 0
107 0 0 0
109 0 0 0
114 0 0 0
115 0 0 0
122 0 0 0
106 0 0 0
120 0 0 0
116 0 0 0
117 0 0 0
118 0 0 0
121 0 0 0
124 0 0 0
125 0 0 0
126 0 0 0
123 0 0 0
127 0 0 0
128 0 0 0
135 0 0 0
136 0 0 0
137 0 0 0
130 0 0 0
131 0 0 0
132 0 0 0
133 0 0 0
140 0 0 0
138 0 0 0
139 0 0 0
134 0 0 0
143 0 0 0
144 0 0 0
145 0 0 0
147 0 0 0
149 0 0 0
142 0 0 0
150 0 0 0
151 0 0 0
152 0 0 0
153 0 0 0
158 0 0 0
146 0 0 0
148 0 0 0
154 0 0 0
155 0 0 0
160 0 0 0
156 0 0 0
157 0 0 0
159 0 0 0
166 0 0 0
167 0 0 0
168 0 0 0
169 0 0 0
174 0 0 0
161 0 0 0
163 0 0 0
164 0 0 0
170 0 0 0
172 0 0 0
469 0 0 0
165 0 0 0
175 0 0 0
176 0 0 0
179 0 0 0
162 0 0 0
178 0 0 0
171 0 0 0
173 0 0 0
177 0 0 0
182 0 0 0
183 0 0 0
188 0 0 0
190 0 0 0
198 0 0 0
180 0 0 0
184 0 0 0
185 0 0 0
186 0 0 0
189 0 0 0
195 0 0 0
196 0 0 0
197 0 0 0
192 0 0 0
193 0 0 0
181 0 0 0
187 0 0 0
191 0 0 0
202 0 0 0
203 0 0 0
204 0 0 0
210 0 0 0
194 0 0 0
216 0 0 0
199 0 0 0
200 0 0 0
201 0 0 0
205 0 0 0
206 0 0 0
208 0 0 0
211 0 0 0
212 0 0 0
213 0 0 0
217 0 0 0
215 0 0 0
214 0 0 0
207 0 0 0
209 0 0 0
219 0 0 0
220 0 0 0
226 0 0 0
227 0 0 0
228 0 0 0
218 0 0 0
221 0 0 0
222 0 0 0
223 0 0 0
224 0 0 0
229 0 0 0
234 0 0 0
235 0 0 0
236 0 0 0
237 0 0 0
225 0 0 0
230 0 0 0
231 0 0 0
232 0 0 0
233 0 0 0
242 0 0 0
243 0 0 0
244 0 0 0
249 0 0 0
238 0 0 0
239 0 0 0
245 0 0 0
247 0 0 0
240 0 0 0
241 0 0 0
250 0 0 0
251 0 0 0
254 0 0 0
246 0 0 0
248 0 0 0
252 0 0 0
253 0 0 0
257 0 0 0
258 0 0 0
263 0 0 0
265 0 0 0
272 0 0 0
255 0 0 0
259 0 0 0
260 0 0 0
261 0 0 0
264 0 0 0
269 0 0 0
270 0 0 0
271 0 0 0
273 0 0 0
256 0 0 0
262 0 0 0
266 0 0 0
267 0 0 0
268 0 0 0
277 0 0 0
278 0 0 0
279 0 0 0
285 0 0 0
291 0 0 0
274 0 0 0
275 0 0 0
276 0 0 0
280 0 0 0
281 0 0 0
283 0 0 0
286 0 0 0
287 0 0 0
288 0 0 0
292 0 0 0
290 0 0 0
282 0 0 0
284 0 0 0
289 0 0 0
294 0 0 0
295 0 0 0
301 0 0 0
302 0 0 0
303 0 0 0
293 0 0 0
296 0 0 0
297 0 0 0
298 0 0 0
305 0 0 0
299 0 0 0
300 0 0 0
304 0 0 0
309 0 0 0
308 0 0 0
306 0 0 0
307 0 0 0
311 0 0 0
312 0 0 0
313 0 0 0
316 0 0 0
318 0 0 0
17 0 0 0
314 0 0 0
319 0 0 0
320 0 0 0
321 0 0 0
327 0 0 0
1 0 0 0
315 0 0 0
317 0 0 0
322 0 0 0
323 0 0 0
324 0 0 0
325 0 0 0
326 0 0 0
328 0 0 0
329 0 0 0
331 0 0 0
332 0 0 0
333 0 0 0
33 0 0 0
334 0 0 0
335 0 0 0
340 0 0 0
342 0 0 0
330 0 0 0
336 0 0 0
337 0 0 0
338 0 0 0
343 0 0 0
339 0 0 0
341 0 0 0
344 0 0 0
345 0 0 0
346 0 0 0
347 0 0 0
348 0 0 0
352 0 0 0
49 0 0 0
349 0 0 0
353 0 0 0
354 0 0 0
355 0 0 0
356 0 0 0
350 0 0 0
351 0 0 0
357 0 0 0
358 0 0 0
359 0 0 0
61 0 0 0
360 0 0 0
361 0 0 0
362 0 0 0
363 0 0 0
364 0 0 0
365 0 0 0
366 0 0 0
367 0 0 0
368 0 0 0
369 0 0 0
370 0 0 0
376 0 0 0
377 0 0 0
371 0 0 0
372 0 0 0
373 0 0 0
374 0 0 0
79 0 0 0
383 0 0 0
375 0 0 0
378 0 0 0
379 0 0 0
380 0 0 0
381 0 0 0
382 0 0 0
97 0 0 0
386 0 0 0
388 0 0 0
384 0 0 0
389 0 0 0
390 0 0 0
391 0 0 0
397 0 0 0
385 0 0 0
387 0 0 0
392 0 0 0
393 0 0 0
394 0 0 0
395 0 0 0
396 0 0 0
398 0 0 0
399 0 0 0
401 0 0 0
402 0 0 0
403 0 0 0
113 0 0 0
404 0 0 0
405 0 0 0
410 0 0 0
412 0 0 0
400 0 0 0
406 0 0 0
407 0 0 0
408 0 0 0
413 0 0 0
129 0 0 0
409 0 0 0
411 0 0 0
414 0 0 0
415 0 0 0
419 0 0 0
416 0 0 0
417 0 0 0
418 0 0 0
422 0 0 0
423 0 0 0
424 0 0 0
425 0 0 0
426 0 0 0
420 0 0 0
421 0 0 0
427 0 0 0
428 0 0 0
429 0 0 0
141 0 0 0
433 0 0 0
430 0 0 0
431 0 0 0
432 0 0 0
434 0 0 0
435 0 0 0
436 0 0 0
437 0 0 0
444 0 0 0
438 0 0 0
439 0 0 0
440 0 0 0
446 0 0 0
447 0 0 0
441 0 0 0
442 0 0 0
443 0 0 0
445 0 0 0
448 0 0 0